<UPF version="2.0.1">
<PP_INFO>
Generated by new atomic code, or converted to UPF format
Author:
Generation date:
Pseudopotential type: US
Element: Li
Functional: SLA  PW   PBE  PBE
Suggested minimum cutoff for wavefunctions:   0. Ry
Suggested minimum cutoff for charge density:   0. Ry
The Pseudo was generated with a Non-Relativistic Calculation
L component and cutoff radius for Local Potential:  0   0.0000
Valence configuration:
nl pn  l   occ       Rcut    Rcut US       E pseu
1S  0  0  2.00      0.750      1.100     0.000000
2S  0  0  1.00      0.750      1.100     0.000000
2P  0  1  0.00      0.750      1.100     0.000000
Generation configuration: not available.
</PP_INFO>
<!--
END OF HUMAN READABLE SECTION
-->
<PP_HEADER generated="Generated by new atomic code, or converted to UPF format" author="" date="" comment="" element="Li" pseudo_type="US" relativistic="no" is_ultrasoft="true" is_paw="false" is_coulomb="false" has_so="false" has_wfc="false" has_gipaw="false" paw_as_gipaw="false" core_correction="false" functional="SLA  PW   PBE  PBE" z_valence="3.000000000000e0" total_psenergy="-1.457078707841e1" wfc_cutoff="0.000000000000e0" rho_cutoff="0.000000000000e0" l_max="1" l_max_rho="0" l_local="0" mesh_size="751" number_of_wfc="3" number_of_proj="4"/>
<PP_MESH mesh="751" rmax="8.156367346080e1" zmesh="3.000000000000e0">
<PP_R>
0.000000000000000e0 5.108463195460001e-6 1.030278091120000e-5 1.558439604650000e-5
2.095477575080000e-5 2.641541183070000e-5 3.196782116470000e-5 3.761354612430000e-5
4.335415500300000e-5 4.919124245099999e-5 5.512642991920002e-5 6.116136610889999e-5
6.729772743010001e-5 7.353721846700000e-5 7.988157245170000e-5 8.633255174559999e-5
9.289194832869999e-5 9.956158429800000e-5 1.063433123730000e-4 1.132390164110000e-4
1.202506119280000e-4 1.273800466370000e-4 1.346293009810000e-4 1.420003886880000e-4
1.494953573310000e-4 1.571162888930000e-4 1.648653003490000e-4 1.727445442510000e-4
1.807562093300000e-4 1.889025210990000e-4 1.971857424740000e-4 2.056081744050000e-4
2.141721565100000e-4 2.228800677270000e-4 2.317343269770000e-4 2.407373938340000e-4
2.498917692060000e-4 2.591999960360000e-4 2.686646600010000e-4 2.782883902360000e-4
2.880738600600000e-4 2.980237877230000e-4 3.081409371580000e-4 3.184281187490000e-4
3.288881901120000e-4 3.395240568910001e-4 3.503386735610000e-4 3.613350442510000e-4
3.725162235800000e-4 3.838853175040000e-4 3.954454841750000e-4 4.071999348280000e-4
4.191519346610000e-4 4.313048037530000e-4 4.436619179770000e-4 4.562267099460000e-4
4.690026699600000e-4 4.819933469790000e-4 4.952023496069999e-4 5.086333470980000e-4
5.222900703710000e-4 5.361763130460000e-4 5.502959325040000e-4 5.646528509510000e-4
5.792510565130000e-4 5.940946043409999e-4 6.091876177380001e-4 6.245342893040000e-4
6.401388821030000e-4 6.560057308449998e-4 6.721392430880000e-4 6.885439004679999e-4
7.052242599400000e-4 7.221849550449999e-4 7.394306971949999e-4 7.569662769850000e-4
7.747965655229999e-4 7.929265157810001e-4 8.113611639719998e-4 8.301056309520000e-4
8.491651236370000e-4 8.685449364530001e-4 8.882504528050001e-4 9.082871465760000e-4
9.286605836429999e-4 9.493764234240000e-4 9.704404204519999e-4 9.918584259739999e-4
1.013636389570000e-3 1.035780360820000e-3 1.058296490970000e-3 1.081191034640000e-3
1.104470351570000e-3 1.128140908400000e-3 1.152209280420000e-3 1.176682153460000e-3
1.201566325690000e-3 1.226868709530000e-3 1.252596333600000e-3 1.278756344620000e-3
1.305356009430000e-3 1.332402716990000e-3 1.359903980450000e-3 1.387867439240000e-3
1.416300861150000e-3 1.445212144540000e-3 1.474609320520000e-3 1.504500555140000e-3
1.534894151740000e-3 1.565798553150000e-3 1.597222344150000e-3 1.629174253760000e-3
1.661663157720000e-3 1.694698080940000e-3 1.728288199990000e-3 1.762442845670000e-3
1.797171505620000e-3 1.832483826900000e-3 1.868389618720000e-3 1.904898855140000e-3
1.942021677840000e-3 1.979768398970000e-3 2.018149503970000e-3 2.057175654500000e-3
2.096857691410000e-3 2.137206637740000e-3 2.178233701790000e-3 2.219950280240000e-3
2.262367961280000e-3 2.305498527890000e-3 2.349353961050000e-3 2.393946443110000e-3
2.439288361160000e-3 2.485392310460000e-3 2.532271097960000e-3 2.579937745860000e-3
2.628405495180000e-3 2.677687809520000e-3 2.727798378710000e-3 2.778751122690000e-3
2.830560195310000e-3 2.883239988330000e-3 2.936805135350000e-3 2.991270515930000e-3
3.046651259690000e-3 3.102962750530000e-3 3.160220630890000e-3 3.218440806100000e-3
3.277639448810000e-3 3.337833003470000e-3 3.399038190900000e-3 3.461272012920000e-3
3.524551757120000e-3 3.588895001610000e-3 3.654319619930000e-3 3.720843785990000e-3
3.788485979170000e-3 3.857264989400000e-3 3.927199922390000e-3 3.998310204980000e-3
4.070615590460000e-3 4.144136164150000e-3 4.218892348880000e-3 4.294904910760000e-3
4.372194964860000e-3 4.450783981150000e-3 4.530693790410000e-3 4.611946590320000e-3
4.694564951640000e-3 4.778571824429999e-3 4.863990544480000e-3 4.950844839770000e-3
5.039158837030000e-3 5.128957068509999e-3 5.220264478740001e-3 5.313106431460001e-3
5.407508716720001e-3 5.503497557979999e-3 5.601099619410000e-3 5.700342013339999e-3
5.801252307730000e-3 5.903858533860000e-3 6.008189194130001e-3 6.114273269940000e-3
6.222140229790000e-3 6.331820037390000e-3 6.443343160080000e-3 6.556740577220000e-3
6.672043788810001e-3 6.789284824270001e-3 6.908496251309999e-3 7.029711184980001e-3
7.152963296870000e-3 7.278286824469999e-3 7.405716580690001e-3 7.535287963480000e-3
7.667036965750000e-3 7.801000185280000e-3 7.937214834930000e-3 8.075718752989999e-3
8.216550413649999e-3 8.359748937730000e-3 8.505354103520000e-3 8.653406357830001e-3
8.803946827249998e-3 8.957017329519999e-3 9.112660385230001e-3 9.270919229560000e-3
9.431837824310001e-3 9.595460870129999e-3 9.761833818920000e-3 9.931002886449999e-3
1.010301506520000e-2 1.027791813750000e-2 1.045576068860000e-2 1.063659212040000e-2
1.082046266490000e-2 1.100742339860000e-2 1.119752625610000e-2 1.139082404510000e-2
1.158737046060000e-2 1.178722010000000e-2 1.199042847860000e-2 1.219705204420000e-2
1.240714819380000e-2 1.262077528870000e-2 1.283799267120000e-2 1.305886068070000e-2
1.328344067090000e-2 1.351179502670000e-2 1.374398718120000e-2 1.398008163380000e-2
1.422014396780000e-2 1.446424086860000e-2 1.471244014270000e-2 1.496481073570000e-2
1.522142275230000e-2 1.548234747520000e-2 1.574765738520000e-2 1.601742618120000e-2
1.629172880080000e-2 1.657064144080000e-2 1.685424157870000e-2 1.714260799430000e-2
1.743582079110000e-2 1.773396141910000e-2 1.803711269700000e-2 1.834535883530000e-2
1.865878546020000e-2 1.897747963640000e-2 1.930152989230000e-2 1.963102624380000e-2
1.996606021990000e-2 2.030672488770000e-2 2.065311487840000e-2 2.100532641370000e-2
2.136345733250000e-2 2.172760711780000e-2 2.209787692470000e-2 2.247436960840000e-2
2.285718975240000e-2 2.324644369830000e-2 2.364223957460000e-2 2.404468732710000e-2
2.445389874960000e-2 2.486998751440000e-2 2.529306920450000e-2 2.572326134520000e-2
2.616068343720000e-2 2.660545698930000e-2 2.705770555280000e-2 2.751755475500000e-2
2.798513233480000e-2 2.846056817790000e-2 2.894399435290000e-2 2.943554514790000e-2
2.993535710800000e-2 3.044356907290000e-2 3.096032221610000e-2 3.148576008330000e-2
3.202002863300000e-2 3.256327627630000e-2 3.311565391909999e-2 3.367731500300000e-2
3.424841554870000e-2 3.482911419880000e-2 3.541957226230000e-2 3.601995375900000e-2
3.663042546560000e-2 3.725115696140000e-2 3.788232067570000e-2 3.852409193600001e-2
3.917664901609999e-2 3.984017318610000e-2 4.051484876250000e-2 4.120086315950000e-2
4.189840694120000e-2 4.260767387410000e-2 4.332886098139999e-2 4.406216859750000e-2
4.480780042370000e-2 4.556596358469999e-2 4.633686868630000e-2 4.712072987370000e-2
4.791776489110000e-2 4.872819514250000e-2 4.955224575240000e-2 5.039014562910000e-2
5.124212752790001e-2 5.210842811600001e-2 5.298928803800001e-2 5.388495198290000e-2
5.479566875200001e-2 5.572169132800000e-2 5.666327694530001e-2 5.762068716160000e-2
5.859418793030001e-2 5.958404967460000e-2 6.059054736240000e-2 6.161396058279999e-2
6.265457362399999e-2 6.371267555170000e-2 6.478856029000001e-2 6.588252670270000e-2
6.699487867639999e-2 6.812592520480000e-2 6.927598047480000e-2 7.044536395370001e-2
7.163440047770000e-2 7.284342034240000e-2 7.407275939430001e-2 7.532275912449999e-2
7.659376676309999e-2 7.788613537610000e-2 7.920022396289999e-2 8.053639755670000e-2
8.189502732539999e-2 8.327649067480001e-2 8.468117135370001e-2 8.610945956009999e-2
8.756175205009999e-2 8.903845224740000e-2 9.053997035620000e-2 9.206672347430001e-2
9.361913570980001e-2 9.519763829819999e-2 9.680266972260000e-2 9.843467583550002e-2
1.000941099820000e-1 1.017814331270000e-1 1.034971139830000e-1 1.052416291380000e-1
1.070154631910000e-1 1.088191088850000e-1 1.106530672440000e-1 1.125178477140000e-1
1.144139683000000e-1 1.163419557150000e-1 1.183023455240000e-1 1.202956822910000e-1
1.223225197350000e-1 1.243834208790000e-1 1.264789582080000e-1 1.286097138300000e-1
1.307762796340000e-1 1.329792574600000e-1 1.352192592580000e-1 1.374969072670000e-1
1.398128341810000e-1 1.421676833280000e-1 1.445621088470000e-1 1.469967758730000e-1
1.494723607170000e-1 1.519895510580000e-1 1.545490461320000e-1 1.571515569250000e-1
1.597978063750000e-1 1.624885295670000e-1 1.652244739420000e-1 1.680063995020000e-1
1.708350790220000e-1 1.737112982650000e-1 1.766358561990000e-1 1.796095652190000e-1
1.826332513760000e-1 1.857077546010000e-1 1.888339289440000e-1 1.920126428050000e-1
1.952447791810000e-1 1.985312359100000e-1 2.018729259160000e-1 2.052707774680000e-1
2.087257344360000e-1 2.122387565520000e-1 2.158108196790000e-1 2.194429160780000e-1
2.231360546900000e-1 2.268912614090000e-1 2.307095793740000e-1 2.345920692510000e-1
2.385398095360000e-1 2.425538968490000e-1 2.466354462390000e-1 2.507855914960000e-1
2.550054854660000e-1 2.592963003690000e-1 2.636592281240000e-1 2.680954806840000e-1
2.726062903710000e-1 2.771929102150000e-1 2.818566143080000e-1 2.865986981530000e-1
2.914204790260000e-1 2.963232963410000e-1 3.013085120230000e-1 3.063775108880000e-1
3.115317010220000e-1 3.167725141780000e-1 3.221014061720000e-1 3.275198572850000e-1
3.330293726780000e-1 3.386314828070000e-1 3.443277438490000e-1 3.501197381370000e-1
3.560090745940000e-1 3.619973891850000e-1 3.680863453700000e-1 3.742776345640000e-1
3.805729766100000e-1 3.869741202540000e-1 3.934828436330000e-1 4.001009547680000e-1
4.068302920650000e-1 4.136727248280000e-1 4.206301537760000e-1 4.277045115740000e-1
4.348977633660000e-1 4.422119073250000e-1 4.496489752030000e-1 4.572110329020000e-1
4.649001810400001e-1 4.727185555430000e-1 4.806683282300000e-1 4.887517074240000e-1
4.969709385590000e-1 5.053283048079999e-1 5.138261277150001e-1 5.224667678419999e-1
5.312526254210001e-1 5.401861410260000e-1 5.492697962450000e-1 5.585061143750000e-1
5.678976611190000e-1 5.774470453010000e-1 5.871569195879999e-1 5.970299812300000e-1
6.070689728080000e-1 6.172766829960000e-1 6.276559473330000e-1 6.382096490159999e-1
6.489407196960000e-1 6.598521402960000e-1 6.709469418350000e-1 6.822282062740000e-1
6.936990673710000e-1 7.053627115490000e-1 7.172223787849999e-1 7.292813635060000e-1
7.415430155090000e-1 7.540107408859999e-1 7.666880029760001e-1 7.795783233200000e-1
7.926852826470000e-1 8.060125218630001e-1 8.195637430640000e-1 8.333427105660000e-1
8.473532519470000e-1 8.615992591170000e-1 8.760846893889999e-1 8.908135665890001e-1
9.057899821640000e-1 9.210180963290000e-1 9.365021392100001e-1 9.522464120330000e-1
9.682552883050001e-1 9.845332150419999e-1 1.001084713990000e0 1.017914382900000e0
1.035026896790000e0 1.052427009240000e0 1.070119553730000e0 1.088109444970000e0
1.106401680260000e0 1.125001340900000e0 1.143913593580000e0 1.163143691830000e0
1.182696977470000e0 1.202578882080000e0 1.222794928550000e0 1.243350732580000e0
1.264252004240000e0 1.285504549580000e0 1.307114272210000e0 1.329087174990000e0
1.351429361630000e0 1.374147038430000e0 1.397246516030000e0 1.420734211070000e0
1.444616648070000e0 1.468900461210000e0 1.493592396120000e0 1.518699311860000e0
1.544228182710000e0 1.570186100210000e0 1.596580275040000e0 1.623418039090000e0
1.650706847480000e0 1.678454280590000e0 1.706668046230000e0 1.735355981740000e0
1.764526056170000e0 1.794186372510000e0 1.824345169920000e0 1.855010826050000e0
1.886191859320000e0 1.917896931350000e0 1.950134849280000e0 1.982914568320000e0
2.016245194150000e0 2.050135985480000e0 2.084596356660000e0 2.119635880210000e0
2.155264289580000e0 2.191491481760000e0 2.228327520100000e0 2.265782637080000e0
2.303867237120000e0 2.342591899540000e0 2.381967381430000e0 2.422004620670000e0
2.462714738990000e0 2.504109045000000e0 2.546199037400000e0 2.588996408110000e0
2.632513045580000e0 2.676761038030000e0 2.721752676870000e0 2.767500460050000e0
2.814017095590000e0 2.861315505070000e0 2.909408827250000e0 2.958310421690000e0
3.008033872490000e0 3.058592992030000e0 3.110001824830000e0 3.162274651460000e0
3.215425992490000e0 3.269470612520000e0 3.324423524280000e0 3.380299992840000e0
3.437115539790000e0 3.494885947590000e0 3.553627263950000e0 3.613355806280000e0
3.674088166230000e0 3.735841214280000e0 3.798632104460000e0 3.862478279090000e0
3.927397473620000e0 3.993407721580000e0 4.060527359580000e0 4.128775032390000e0
4.198169698140000e0 4.268730633570000e0 4.340477439390000e0 4.413430045730000e0
4.487608717680000e0 4.563034060900000e0 4.639727027350000e0 4.717708921140000e0
4.797001404390000e0 4.877626503320000e0 4.959606614300000e0 5.042964510110000e0
5.127723346260000e0 5.213906667410000e0 5.301538413930000e0 5.390642928530000e0
5.481244963040000e0 5.573369685280000e0 5.667042686040000e0 5.762289986200000e0
5.859138043950000e0 5.957613762160000e0 6.057744495830000e0 6.159558059680000e0
6.263082735930000e0 6.368347282090000e0 6.475380938990000e0 6.584213438890000e0
6.694875013740000e0 6.807396403580000e0 6.921808865070000e0 7.038144180190000e0
7.156434665050000e0 7.276713178890000e0 7.399013133160000e0 7.523368500870000e0
7.649813825980000e0 7.778384232990000e0 7.909115436750000e0 8.042043752300000e0
8.177206105050001e0 8.314640040950000e0 8.454383736980001e0 8.596476011740000e0
8.740956336220000e0 8.887864844759999e0 9.037242346230000e0 9.189130335350001e0
9.343571004190000e0 9.500607253929999e0 9.660282706780000e0 9.822641718030001e0
9.987729388480000e0 1.015559157690000e1 1.032627491260000e1 1.049982680890000e1
1.067629547570000e1 1.085572993330000e1 1.103818002560000e1 1.122369643440000e1
1.141233069330000e1 1.160413520190000e1 1.179916324040000e1 1.199746898460000e1
1.219910752060000e1 1.240413486040000e1 1.261260795750000e1 1.282458472240000e1
1.304012403870000e1 1.325928578010000e1 1.348213082600000e1 1.370872107950000e1
1.393911948360000e1 1.417339003940000e1 1.441159782350000e1 1.465380900640000e1
1.490009087040000e1 1.515051182890000e1 1.540514144460000e1 1.566405044990000e1
1.592731076540000e1 1.619499552070000e1 1.646717907450000e1 1.674393703500000e1
1.702534628130000e1 1.731148498430000e1 1.760243262890000e1 1.789827003570000e1
1.819907938370000e1 1.850494423300000e1 1.881594954810000e1 1.913218172120000e1
1.945372859660000e1 1.978067949510000e1 2.011312523850000e1 2.045115817480000e1
2.079487220430000e1 2.114436280540000e1 2.149972706100000e1 2.186106368560000e1
2.222847305300000e1 2.260205722360000e1 2.298191997310000e1 2.336816682160000e1
2.376090506220000e1 2.416024379140000e1 2.456629393920000e1 2.497916830000000e1
2.539898156370000e1 2.582585034780000e1 2.625989322970000e1 2.670123077970000e1
2.714998559430000e1 2.760628233070000e1 2.807024774070000e1 2.854201070670000e1
2.902170227700000e1 2.950945570230000e1 3.000540647290000e1 3.050969235590000e1
3.102245343410000e1 3.154383214430000e1 3.207397331740000e1 3.261302421830000e1
3.316113458670000e1 3.371845667900000e1 3.428514531050000e1 3.486135789840000e1
3.544725450540000e1 3.604299788440001e1 3.664875352340001e1 3.726468969180000e1
3.789097748700000e1 3.852779088170000e1 3.917530677280000e1 3.983370502990001e1
4.050316854560000e1 4.118388328630000e1 4.187603834390000e1 4.257982598800001e1
4.329544171980000e1 4.402308432610000e1 4.476295593430001e1 4.551526206930000e1
4.628021170970000e1 4.705801734650001e1 4.784889504180000e1 4.865306448900000e1
4.947074907350000e1 5.030217593540001e1 5.114757603180000e1 5.200718420150000e1
5.288123923010001e1 5.376998391630000e1 5.467366513930000e1 5.559253392750001e1
5.652684552820000e1 5.747685947830000e1 5.844283967670000e1 5.942505445750001e1
6.042377666440000e1 6.143928372670000e1 6.247185773610000e1 6.352178552560001e1
6.458935874830001e1 6.567487395930001e1 6.677863269760000e1 6.790094156990000e1
6.904211233600001e1 7.020246199490001e1 7.138231287360000e1 7.258199271590001e1
7.380183477410000e1 7.504217790090000e1 7.630336664400000e1 7.758575134190001e1
7.888968822070000e1 8.021553949340001e1 8.156367346080001e1
</PP_R>
<PP_RAB>
5.066010919749999e-6 5.151151973000000e-6 5.237723934930000e-6 5.325750853860001e-6
5.415257182260000e-6 5.506267783589999e-6 5.598807939160001e-6 5.692903355149999e-6
5.788580169800000e-6 5.885864960600000e-6 5.984784751730001e-6 6.085367021560000e-6
6.187639710250000e-6 6.291631227529999e-6 6.397370460609999e-6 6.504886782170000e-6
6.614210058559999e-6 6.725370658050000e-6 6.838399459300000e-6 6.953327859920000e-6
7.070187785220000e-6 7.189011697030000e-6 7.309832602760000e-6 7.432684064550000e-6
7.557600208599999e-6 7.684615734630000e-6 7.813765925560001e-6 7.945086657270001e-6
8.078614408580000e-6 8.214386271390001e-6 8.352439960989999e-6 8.492813826499999e-6
8.635546861580000e-6 8.780678715199999e-6 8.928249702700001e-6 9.078300816980001e-6
9.230873739860000e-6 9.386010853679998e-6 9.543755253099999e-6 9.704150757010000e-6
9.867241920750001e-6 1.003307404850000e-5 1.020169320570000e-5 1.037314623220000e-5
1.054748075500000e-5 1.072474520130000e-5 1.090498881240000e-5 1.108826165730000e-5
1.127461464610000e-5 1.146409954480000e-5 1.165676898930000e-5 1.185267650020000e-5
1.205187649740000e-5 1.225442431560000e-5 1.246037621940000e-5 1.266978941880000e-5
1.288272208570000e-5 1.309923336940000e-5 1.331938341320000e-5 1.354323337140000e-5
1.377084542590000e-5 1.400228280390000e-5 1.423760979480000e-5 1.447689176890000e-5
1.472019519500000e-5 1.496758765880000e-5 1.521913788200000e-5 1.547491574150000e-5
1.573499228810000e-5 1.599943976720000e-5 1.626833163790000e-5 1.654174259420000e-5
1.681974858540000e-5 1.710242683720000e-5 1.738985587300000e-5 1.768211553620000e-5
1.797928701180000e-5 1.828145284940000e-5 1.858869698600000e-5 1.890110476890000e-5
1.921876298040000e-5 1.954175986060000e-5 1.987018513320000e-5 2.020413002940000e-5
2.054368731379999e-5 2.088895131010000e-5 2.124001792730000e-5 2.159698468600000e-5
2.195995074599999e-5 2.232901693350001e-5 2.270428576920000e-5 2.308586149710000e-5
2.347385011260000e-5 2.386835939310000e-5 2.426949892680000e-5 2.467738014410000e-5
2.509211634780000e-5 2.551382274530000e-5 2.594261647980000e-5 2.637861666340000e-5
2.682194441020000e-5 2.727272286950000e-5 2.773107726060000e-5 2.819713490700000e-5
2.867102527220000e-5 2.915287999550000e-5 2.964283292840000e-5 3.014102017210000e-5
3.064758011530000e-5 3.116265347230000e-5 3.168638332230000e-5 3.221891514910000e-5
3.276039688180000e-5 3.331097893540000e-5 3.387081425290000e-5 3.444005834760000e-5
3.501886934680000e-5 3.560740803480000e-5 3.620583789840000e-5 3.681432517200000e-5
3.743303888380000e-5 3.806215090270000e-5 3.870183598590000e-5 3.935227182810000e-5
4.001363910990000e-5 4.068612154869999e-5 4.136990594960000e-5 4.206518225700000e-5
4.277214360780000e-5 4.349098638460000e-5 4.422191027059999e-5 4.496511830490001e-5
4.572081693900000e-5 4.648921609399999e-5 4.727052921909999e-5 4.806497335070000e-5
4.887276917279999e-5 4.969414107840000e-5 5.052931723160000e-5 5.137852963120000e-5
5.224201417499998e-5 5.312001072519999e-5 5.401276317560000e-5 5.492051951859999e-5
5.584353191460000e-5 5.678205676190000e-5 5.773635476790001e-5 5.870669102140001e-5
5.969333506660001e-5 6.069656097760000e-5 6.171664743470000e-5 6.275387780179999e-5
6.380854020520000e-5 6.488092761330000e-5 6.597133791849998e-5 6.708007401959999e-5
6.820744390590000e-5 6.935376074300001e-5 7.051934295960001e-5 7.170451433600000e-5
7.290960409409999e-5 7.413494698890000e-5 7.538088340110000e-5 7.664775943240000e-5
7.793592700080001e-5 7.924574393890000e-5 8.057757409320001e-5 8.193178742520001e-5
8.330876011380001e-5 8.470887466030000e-5 8.613251999449998e-5 8.758009158250001e-5
8.905199153690001e-5 9.054862872820001e-5 9.207041889869998e-5 9.361778477750001e-5
9.519115619850000e-5 9.679097021940002e-5 9.841767124329998e-5 1.000717111420000e-4
1.017535493820000e-4 1.034636531510000e-4 1.052024974890000e-4 1.069705654190000e-4
1.087683480830000e-4 1.105963448760000e-4 1.124550635880000e-4 1.143450205400000e-4
1.162667407330000e-4 1.182207579910000e-4 1.202076151080000e-4 1.222278640030000e-4
1.242820658680000e-4 1.263707913280000e-4 1.284946205980000e-4 1.306541436440000e-4
1.328499603490000e-4 1.350826806740000e-4 1.373529248350000e-4 1.396613234700000e-4
1.420085178140000e-4 1.443951598820000e-4 1.468219126450000e-4 1.492894502170000e-4
1.517984580410000e-4 1.543496330780000e-4 1.569436840070000e-4 1.595813314120000e-4
1.622633079920000e-4 1.649903587550000e-4 1.677632412350000e-4 1.705827256940000e-4
1.734495953400000e-4 1.763646465450000e-4 1.793286890630000e-4 1.823425462590000e-4
1.854070553350000e-4 1.885230675630000e-4 1.916914485220000e-4 1.949130783380000e-4
1.981888519290001e-4 2.015196792540000e-4 2.049064855620000e-4 2.083502116570000e-4
2.118518141500000e-4 2.154122657320000e-4 2.190325554390000e-4 2.227136889310000e-4
2.264566887690000e-4 2.302625946980000e-4 2.341324639400000e-4 2.380673714840000e-4
2.420684103830000e-4 2.461366920640000e-4 2.502733466310000e-4 2.544795231810000e-4
2.587563901240000e-4 2.631051355060000e-4 2.675269673400000e-4 2.720231139400000e-4
2.765948242660000e-4 2.812433682659999e-4 2.859700372320000e-4 2.907761441580000e-4
2.956630241050000e-4 3.006320345710000e-4 3.056845558690000e-4 3.108219915090000e-4
3.160457685890000e-4 3.213573381940000e-4 3.267581757909999e-4 3.322497816500000e-4
3.378336812510000e-4 3.435114257140000e-4 3.492845922260001e-4 3.551547844820000e-4
3.611236331279999e-4 3.671927962170001e-4 3.733639596650000e-4 3.796388377260000e-4
3.860191734599999e-4 3.925067392250000e-4 3.991033371629999e-4 4.058107997050000e-4
4.126309900800001e-4 4.195658028270000e-4 4.266171643279999e-4 4.337870333400000e-4
4.410774015390000e-4 4.484902940760000e-4 4.560277701330000e-4 4.636919235030001e-4
4.714848831670000e-4 4.794088138850000e-4 4.874659168020000e-4 4.956584300509999e-4
5.039886293860000e-4 5.124588288020000e-4 5.210713811880000e-4 5.298286789750000e-4
5.387331548020001e-4 5.477872821920000e-4 5.569935762380000e-4 5.663545943030000e-4
5.758729367309999e-4 5.855512475660001e-4 5.953922152910001e-4 6.053985735700000e-4
6.155731020130000e-4 6.259186269420001e-4 6.364380221819999e-4 6.471342098530000e-4
6.580101611880000e-4 6.690688973540000e-4 6.803134902940000e-4 6.917470635780000e-4
7.033727932730000e-4 7.151939088210001e-4 7.272136939429998e-4 7.394354875450000e-4
7.518626846480001e-4 7.644987373309999e-4 7.773471556910000e-4 7.904115088140000e-4
8.036954257720000e-4 8.172025966280000e-4 8.309367734589999e-4 8.449017714040000e-4
8.591014697180000e-4 8.735398128529999e-4 8.882208115539999e-4 9.031485439690000e-4
9.183271567869999e-4 9.337608663859999e-4 9.494539600080000e-4 9.654107969469999e-4
9.816358097590001e-4 9.981335054970000e-4 1.014908466960000e-3 1.031965353970000e-3
1.049308904650000e-3 1.066943936780000e-3 1.084875349090000e-3 1.103108122630000e-3
1.121647322190000e-3 1.140498097670000e-3 1.159665685500000e-3 1.179155410150000e-3
1.198972685550000e-3 1.219123016630000e-3 1.239612000820000e-3 1.260445329660000e-3
1.281628790310000e-3 1.303168267190000e-3 1.325069743640000e-3 1.347339303530000e-3
1.369983133010000e-3 1.393007522170000e-3 1.416418866810000e-3 1.440223670250000e-3
1.464428545090000e-3 1.489040215040000e-3 1.514065516860000e-3 1.539511402160000e-3
1.565384939420000e-3 1.591693315890000e-3 1.618443839630000e-3 1.645643941510000e-3
1.673301177290000e-3 1.701423229710000e-3 1.730017910640000e-3 1.759093163220000e-3
1.788657064100000e-3 1.818717825670000e-3 1.849283798320000e-3 1.880363472820000e-3
1.911965482590000e-3 1.944098606170000e-3 1.976771769650000e-3 2.009994049110000e-3
2.043774673170000e-3 2.078123025570000e-3 2.113048647720000e-3 2.148561241409999e-3
2.184670671490000e-3 2.221386968580000e-3 2.258720331890000e-3 2.296681132040000e-3
2.335279913940000e-3 2.374527399720000e-3 2.414434491710000e-3 2.455012275470000e-3
2.496272022870000e-3 2.538225195220000e-3 2.580883446450000e-3 2.624258626340000e-3
2.668362783830000e-3 2.713208170370001e-3 2.758807243290000e-3 2.805172669290000e-3
2.852317327960000e-3 2.900254315340000e-3 2.948996947570000e-3 2.998558764580000e-3
3.048953533860000e-3 3.100195254280000e-3 3.152298159980000e-3 3.205276724340000e-3
3.259145663940000e-3 3.313919942750000e-3 3.369614776180000e-3 3.426245635380000e-3
3.483828251520000e-3 3.542378620120000e-3 3.601913005560000e-3 3.662447945560000e-3
3.724000255750000e-3 3.786587034410000e-3 3.850225667150000e-3 3.914933831770000e-3
3.980729503190000e-3 4.047630958400000e-3 4.115656781569999e-3 4.184825869190000e-3
4.255157435359999e-3 4.326671017060000e-3 4.399386479650000e-3 4.473324022320000e-3
4.548504183770000e-3 4.624947847840001e-3 4.702676249390001e-3 4.781710980140000e-3
4.862073994679999e-3 4.943787616600000e-3 5.026874544640001e-3 5.111357859050001e-3
5.197261027950000e-3 5.284607913890000e-3 5.373422780460000e-3 5.463730299010000e-3
5.555555555560000e-3 5.648924057700000e-3 5.743861741740000e-3 5.840394979869999e-3
5.938550587480000e-3 6.038355830670000e-3 6.139838433750000e-3 6.243026586989999e-3
6.347948954420000e-3 6.454634681820000e-3 6.563113404810000e-3 6.673415257049999e-3
6.785570878670000e-3 6.899611424710001e-3 7.015568573850000e-3 7.133474537150000e-3
7.253362067030000e-3 7.375264466339999e-3 7.499215597639999e-3 7.625249892620001e-3
7.753402361589999e-3 7.883708603299999e-3 8.016204814750001e-3 8.150927801309999e-3
8.287914986900001e-3 8.427204424379999e-3 8.568834806170001e-3 8.712845474949999e-3
8.859276434600000e-3 9.008168361339999e-3 9.159562615000000e-3 9.313501250500000e-3
9.470027029570000e-3 9.629183432600000e-3 9.791014670710002e-3 9.955565698090002e-3
1.012288222440000e-2 1.029301072750000e-2 1.046599846650000e-2 1.064189349450000e-2
1.082074467250000e-2 1.100260168250000e-2 1.118751504150000e-2 1.137553611550000e-2
1.156671713380000e-2 1.176111120340000e-2 1.195877232400000e-2 1.215975540270000e-2
1.236411626940000e-2 1.257191169240000e-2 1.278319939380000e-2 1.299803806630000e-2
1.321648738840000e-2 1.343860804200000e-2 1.366446172860000e-2 1.389411118700000e-2
1.412762021000000e-2 1.436505366290000e-2 1.460647750070000e-2 1.485195878740000e-2
1.510156571370000e-2 1.535536761640000e-2 1.561343499780000e-2 1.587583954480000e-2
1.614265414930000e-2 1.641395292830000e-2 1.668981124410000e-2 1.697030572600000e-2
1.725551429080000e-2 1.754551616490000e-2 1.784039190640000e-2 1.814022342700000e-2
1.844509401520000e-2 1.875508835920000e-2 1.907029257060000e-2 1.939079420810000e-2
1.971668230200000e-2 2.004804737890000e-2 2.038498148680000e-2 2.072757822060000e-2
2.107593274820000e-2 2.143014183720000e-2 2.179030388110000e-2 2.215651892740000e-2
2.252888870470000e-2 2.290751665150000e-2 2.329250794470000e-2 2.368396952870000e-2
2.408201014550000e-2 2.448674036430000e-2 2.489827261300000e-2 2.531672120860000e-2
2.574220238950000e-2 2.617483434770000e-2 2.661473726160000e-2 2.706203332910000e-2
2.751684680220000e-2 2.797930402070000e-2 2.844953344810000e-2 2.892766570660000e-2
2.941383361370000e-2 2.990817221940000e-2 3.041081884290000e-2 3.092191311170000e-2
3.144159699970000e-2 3.197001486670001e-2 3.250731349900000e-2 3.305364214960000e-2
3.360915258010000e-2 3.417399910230000e-2 3.474833862190000e-2 3.533233068110000e-2
3.592613750390000e-2 3.652992404030000e-2 3.714385801270001e-2 3.776810996220000e-2
3.840285329630000e-2 3.904826433660000e-2 3.970452236810000e-2 4.037180968880000e-2
4.105031166070000e-2 4.174021676100001e-2 4.244171663420000e-2 4.315500614610000e-2
4.388028343730000e-2 4.461774997820000e-2 4.536761062540000e-2 4.613007367840000e-2
4.690535093740000e-2 4.769365776210000e-2 4.849521313179999e-2 4.931023970580000e-2
5.013896388570000e-2 5.098161587800000e-2 5.183842975810000e-2 5.270964353530000e-2
5.359549921909999e-2 5.449624288620001e-2 5.541212474900000e-2 5.634339922490000e-2
5.729032500740000e-2 5.825316513740000e-2 5.923218707669999e-2 6.022766278220000e-2
6.123986878130000e-2 6.226908624889999e-2 6.331560108520000e-2 6.437970399570001e-2
6.546169057120000e-2 6.656186137060000e-2 6.768052200390001e-2 6.881798321740000e-2
6.997456097990000e-2 7.115057657040000e-2 7.234635666739999e-2 7.356223343980001e-2
7.479854463890000e-2 7.605563369250000e-2 7.733384980009999e-2 7.863354802989999e-2
7.995508941750000e-2 8.129884106630001e-2 8.266517624930001e-2 8.405447451280001e-2
8.546712178189999e-2 8.690351046769999e-2 8.836403957640000e-2 8.984911481969998e-2
9.135914872830000e-2 9.289456076570001e-2 9.445577744500000e-2 9.604323244760000e-2
9.765736674350000e-2 9.929862871360001e-2 1.009674742750000e-1 1.026643670060000e-1
1.043897782760000e-1 1.061441873790000e-1 1.079280816610000e-1 1.097419566590000e-1
1.115863162400000e-1 1.134616727370000e-1 1.153685470950000e-1 1.173074690140000e-1
1.192789770950000e-1 1.212836189920000e-1 1.233219515640000e-1 1.253945410250000e-1
1.275019631110000e-1 1.296448032270000e-1 1.318236566230000e-1 1.340391285490000e-1
1.362918344280000e-1 1.385824000270000e-1 1.409114616270000e-1 1.432796662070000e-1
1.456876716150000e-1 1.481361467570000e-1 1.506257717810000e-1 1.531572382670000e-1
1.557312494140000e-1 1.583485202430000e-1 1.610097777910000e-1 1.637157613110000e-1